# vtk DataFile Version 3.0
Mesh Data
ASCII
DATASET UNSTRUCTURED_GRID

POINTS  4938 float
 3.218003  3.198563 0
 3.146837  3.269345 0
 3.075671  3.340127 0
 3.004505  3.410909 0
 3.431866  2.844249 0
 3.360700  2.915031 0
 3.289534  2.985813 0
 3.218368  3.056595 0
 3.147202  3.127377 0
 3.076036  3.198159 0
 3.004870  3.268941 0
 2.933704  3.339723 0
 2.862538  3.410506 0
 2.791372  3.481288 0
 2.720206  3.552070 0
 2.649040  3.622852 0
 3.574563  2.560717 0
 3.503397  2.631500 0
 3.432231  2.702282 0
 3.361065  2.773064 0
 3.289899  2.843846 0
 3.218733  2.914628 0
 3.147567  2.985410 0
 3.076401  3.056192 0
 3.005234  3.126974 0
 2.934068  3.197756 0
 2.862902  3.268538 0
 2.791736  3.339320 0
 2.720570  3.410102 0
 2.649404  3.480884 0
 2.578238  3.551666 0
 2.507072  3.622448 0
 2.435906  3.693231 0
 2.364740  3.764013 0
 3.788426  2.206404 0
 3.717260  2.277186 0
 3.646094  2.347968 0
 3.574927  2.418750 0
 3.503761  2.489532 0
 3.432595  2.560314 0
 3.361429  2.631096 0
 3.290263  2.701878 0
 3.219097  2.772660 0
 3.147931  2.843443 0
 3.076765  2.914225 0
 3.005599  2.985007 0
 2.934433  3.055789 0
 2.863267  3.126571 0
 2.792101  3.197353 0
 2.720935  3.268135 0
 2.649769  3.338917 0
 2.578603  3.409699 0
 2.507437  3.480481 0
 2.436271  3.551263 0
 2.365105  3.622045 0
 2.293939  3.692827 0
 2.222773  3.763609 0
 2.151607  3.834391 0
 2.080441  3.905174 0
 2.009275  3.975956 0
 3.788790  2.064437 0
 3.717624  2.135219 0
 3.646458  2.206001 0
 3.575292  2.276783 0
 3.504126  2.347565 0
 3.432960  2.418347 0
 3.361794  2.489129 0
 3.290628  2.559911 0
 3.219462  2.630693 0
 3.148296  2.701475 0
 3.077130  2.772257 0
 3.005964  2.843039 0
 2.934798  2.913821 0
 2.863632  2.984603 0
 2.792466  3.055385 0
 2.721300  3.126168 0
 2.650134  3.196950 0
 2.578968  3.267732 0
 2.507802  3.338514 0
 2.436636  3.409296 0
 2.365470  3.480078 0
 2.294304  3.550860 0
 2.223138  3.621642 0
 2.151972  3.692424 0
 2.080806  3.763206 0
 2.009640  3.833988 0
 1.938474  3.904770 0
 1.867308  3.975552 0
 3.931487  1.780905 0
 3.860321  1.851687 0
 3.789155  1.922469 0
 3.717989  1.993251 0
 3.646823  2.064033 0
 3.575657  2.134815 0
 3.504491  2.205597 0
 3.433325  2.276379 0
 3.362159  2.347162 0
 3.290993  2.417944 0
 3.219827  2.488726 0
 3.148661  2.559508 0
 3.077495  2.630290 0
 3.006329  2.701072 0
 2.935163  2.771854 0
 2.863997  2.842636 0
 2.792831  2.913418 0
 2.721665  2.984200 0
 2.650499  3.054982 0
 2.579333  3.125764 0
 2.508167  3.196546 0
 2.437001  3.267328 0
 2.365835  3.338110 0
 2.294669  3.408893 0
 2.223503  3.479675 0
 2.152336  3.550457 0
 2.081170  3.621239 0
 2.010004  3.692021 0
 1.938838  3.762803 0
 1.867672  3.833585 0
 1.796506  3.904367 0
 1.725340  3.975149 0
 1.654174  4.045931 0
 3.931852  1.638938 0
 3.860686  1.709720 0
 3.789520  1.780502 0
 3.718354  1.851284 0
 3.647188  1.922066 0
 3.576022  1.992848 0
 3.504856  2.063630 0
 3.433690  2.134412 0
 3.362524  2.205194 0
 3.291358  2.275976 0
 3.220192  2.346758 0
 3.149026  2.417540 0
 3.077860  2.488322 0
 3.006694  2.559104 0
 2.935528  2.629887 0
 2.864362  2.700669 0
 2.793196  2.771451 0
 2.722029  2.842233 0
 2.650863  2.913015 0
 2.579697  2.983797 0
 2.508531  3.054579 0
 2.437365  3.125361 0
 2.366199  3.196143 0
 2.295033  3.266925 0
 2.223867  3.337707 0
 2.152701  3.408489 0
 2.081535  3.479271 0
 2.010369  3.550053 0
 1.939203  3.620836 0
 1.868037  3.691618 0
 1.796871  3.762400 0
 1.725705  3.833182 0
 1.654539  3.903964 0
 1.583373  3.974746 0
 1.512207  4.045528 0
 3.932217  1.496970 0
 3.861051  1.567752 0
 3.789885  1.638534 0
 3.718719  1.709316 0
 3.647553  1.780099 0
 3.576387  1.850881 0
 3.505221  1.921663 0
 3.434055  1.992445 0
 3.362889  2.063227 0
 3.291722  2.134009 0
 3.220556  2.204791 0
 3.149390  2.275573 0
 3.078224  2.346355 0
 3.007058  2.417137 0
 2.935892  2.487919 0
 2.864726  2.558701 0
 2.793560  2.629483 0
 2.722394  2.700265 0
 2.651228  2.771047 0
 2.580062  2.841830 0
 2.508896  2.912612 0
 2.437730  2.983394 0
 2.366564  3.054176 0
 2.295398  3.124958 0
 2.224232  3.195740 0
 2.153066  3.266522 0
 2.081900  3.337304 0
 2.010734  3.408086 0
 1.939568  3.478868 0
 1.868402  3.549650 0
 1.797236  3.620432 0
 1.726070  3.691214 0
 1.654904  3.761996 0
 1.583738  3.832778 0
 1.512572  3.903561 0
 1.441406  3.974343 0
 1.370240  4.045125 0
 4.003748  1.284221 0
 3.932581  1.355003 0
 3.861415  1.425785 0
 3.790249  1.496567 0
 3.719083  1.567349 0
 3.647917  1.638131 0
 3.576751  1.708913 0
 3.505585  1.779695 0
 3.434419  1.850477 0
 3.363253  1.921259 0
 3.292087  1.992041 0
 3.220921  2.062824 0
 3.149755  2.133606 0
 3.078589  2.204388 0
 3.007423  2.275170 0
 2.936257  2.345952 0
 2.865091  2.416734 0
 2.793925  2.487516 0
 2.722759  2.558298 0
 2.651593  2.629080 0
 2.580427  2.699862 0
 2.509261  2.770644 0
 2.438095  2.841426 0
 2.366929  2.912208 0
 2.295763  2.982990 0
 2.224597  3.053772 0
 2.153431  3.124555 0
 2.082265  3.195337 0
 2.011099  3.266119 0
 1.939933  3.336901 0
 1.868767  3.407683 0
 1.797601  3.478465 0
 1.726435  3.549247 0
 1.655269  3.620029 0
 1.584103  3.690811 0
 1.512937  3.761593 0
 1.441770  3.832375 0
 1.370604  3.903157 0
 1.299438  3.973939 0
 1.228272  4.044721 0
 1.157106  4.115503 0
 4.004112  1.142253 0
 3.932946  1.213035 0
 3.861780  1.283818 0
 3.790614  1.354600 0
 3.719448  1.425382 0
 3.648282  1.496164 0
 3.577116  1.566946 0
 3.505950  1.637728 0
 3.434784  1.708510 0
 3.363618  1.779292 0
 3.292452  1.850074 0
 3.221286  1.920856 0
 3.150120  1.991638 0
 3.078954  2.062420 0
 3.007788  2.133202 0
 2.936622  2.203984 0
 2.865456  2.274766 0
 2.794290  2.345549 0
 2.723124  2.416331 0
 2.651958  2.487113 0
 2.580792  2.557895 0
 2.509626  2.628677 0
 2.438460  2.699459 0
 2.367294  2.770241 0
 2.296128  2.841023 0
 2.224962  2.911805 0
 2.153796  2.982587 0
 2.082630  3.053369 0
 2.011464  3.124151 0
 1.940298  3.194933 0
 1.869131  3.265715 0
 1.797965  3.336497 0
 1.726799  3.407280 0
 1.655633  3.478062 0
 1.584467  3.548844 0
 1.513301  3.619626 0
 1.442135  3.690408 0
 1.370969  3.761190 0
 1.299803  3.831972 0
 1.228637  3.902754 0
 1.157471  3.973536 0
 1.086305  4.044318 0
 1.015139  4.115100 0
 4.004477  1.000286 0
 3.933311  1.071068 0
 3.862145  1.141850 0
 3.790979  1.212632 0
 3.719813  1.283414 0
 3.648647  1.354196 0
 3.577481  1.424978 0
 3.506315  1.495760 0
 3.435149  1.566543 0
 3.363983  1.637325 0
 3.292817  1.708107 0
 3.221651  1.778889 0
 3.150485  1.849671 0
 3.079319  1.920453 0
 3.008153  1.991235 0
 2.936987  2.062017 0
 2.865821  2.132799 0
 2.794655  2.203581 0
 2.723489  2.274363 0
 2.652323  2.345145 0
 2.581157  2.415927 0
 2.509991  2.486709 0
 2.438824  2.557491 0
 2.367658  2.628274 0
 2.296492  2.699056 0
 2.225326  2.769838 0
 2.154160  2.840620 0
 2.082994  2.911402 0
 2.011828  2.982184 0
 1.940662  3.052966 0
 1.869496  3.123748 0
 1.798330  3.194530 0
 1.727164  3.265312 0
 1.655998  3.336094 0
 1.584832  3.406876 0
 1.513666  3.477658 0
 1.442500  3.548440 0
 1.371334  3.619222 0
 1.300168  3.690005 0
 1.229002  3.760787 0
 1.157836  3.831569 0
 1.086670  3.902351 0
 1.015504  3.973133 0
 0.944338  4.043915 0
 4.004842  0.858319 0
 3.933676  0.929101 0
 3.862510  0.999883 0
 3.791344  1.070665 0
 3.720178  1.141447 0
 3.649012  1.212229 0
 3.577846  1.283011 0
 3.506680  1.353793 0
 3.435514  1.424575 0
 3.364348  1.495357 0
 3.293182  1.566139 0
 3.222016  1.636921 0
 3.150850  1.707703 0
 3.079684  1.778485 0
 3.008517  1.849268 0
 2.937351  1.920050 0
 2.866185  1.990832 0
 2.795019  2.061614 0
 2.723853  2.132396 0
 2.652687  2.203178 0
 2.581521  2.273960 0
 2.510355  2.344742 0
 2.439189  2.415524 0
 2.368023  2.486306 0
 2.296857  2.557088 0
 2.225691  2.627870 0
 2.154525  2.698652 0
 2.083359  2.769434 0
 2.012193  2.840217 0
 1.941027  2.910999 0
 1.869861  2.981781 0
 1.798695  3.052563 0
 1.727529  3.123345 0
 1.656363  3.194127 0
 1.585197  3.264909 0
 1.514031  3.335691 0
 1.442865  3.406473 0
 1.371699  3.477255 0
 1.300533  3.548037 0
 1.229367  3.618819 0
 1.158201  3.689601 0
 1.087035  3.760383 0
 1.015869  3.831165 0
 0.944703  3.901948 0
 0.873537  3.972730 0
 0.802371  4.043512 0
 4.005207  0.716351 0
 3.934041  0.787133 0
 3.862875  0.857915 0
 3.791709  0.928697 0
 3.720543  0.999479 0
 3.649376  1.070262 0
 3.578210  1.141044 0
 3.507044  1.211826 0
 3.435878  1.282608 0
 3.364712  1.353390 0
 3.293546  1.424172 0
 3.222380  1.494954 0
 3.151214  1.565736 0
 3.080048  1.636518 0
 3.008882  1.707300 0
 2.937716  1.778082 0
 2.866550  1.848864 0
 2.795384  1.919646 0
 2.724218  1.990428 0
 2.653052  2.061211 0
 2.581886  2.131993 0
 2.510720  2.202775 0
 2.439554  2.273557 0
 2.368388  2.344339 0
 2.297222  2.415121 0
 2.226056  2.485903 0
 2.154890  2.556685 0
 2.083724  2.627467 0
 2.012558  2.698249 0
 1.941392  2.769031 0
 1.870226  2.839813 0
 1.799060  2.910595 0
 1.727894  2.981377 0
 1.656728  3.052159 0
 1.585562  3.122942 0
 1.514396  3.193724 0
 1.443230  3.264506 0
 1.372064  3.335288 0
 1.300898  3.406070 0
 1.229732  3.476852 0
 1.158565  3.547634 0
 1.087399  3.618416 0
 1.016233  3.689198 0
 0.945067  3.759980 0
 0.873901  3.830762 0
 0.802735  3.901544 0
 0.731569  3.972326 0
 0.660403  4.043108 0
 4.005571  0.574384 0
 3.934405  0.645166 0
 3.863239  0.715948 0
 3.792073  0.786730 0
 3.720907  0.857512 0
 3.649741  0.928294 0
 3.578575  0.999076 0
 3.507409  1.069858 0
 3.436243  1.140640 0
 3.365077  1.211422 0
 3.293911  1.282205 0
 3.222745  1.352987 0
 3.151579  1.423769 0
 3.080413  1.494551 0
 3.009247  1.565333 0
 2.938081  1.636115 0
 2.866915  1.706897 0
 2.795749  1.777679 0
 2.724583  1.848461 0
 2.653417  1.919243 0
 2.582251  1.990025 0
 2.511085  2.060807 0
 2.439919  2.131589 0
 2.368753  2.202371 0
 2.297587  2.273153 0
 2.226421  2.343936 0
 2.155255  2.414718 0
 2.084089  2.485500 0
 2.012923  2.556282 0
 1.941757  2.627064 0
 1.870591  2.697846 0
 1.799425  2.768628 0
 1.728259  2.839410 0
 1.657093  2.910192 0
 1.585926  2.980974 0
[...]
CELL_DATA 9585
SCALARS weights float 1
LOOKUP_TABLE default
 427993.9098380256
 427993.9098380256
 427993.9098380256
 427993.9098380256
 427993.9098380256
 427993.9098380256
 427993.9098380256
 427993.9098380256
 427993.9098380256
 427993.9098380256
 427993.9098380256
 427993.9098380256
 427993.9098380256
 427993.9098380256
 427993.9098380256
 427993.9098380256
 427993.9098380256
 427993.9098380256
 427993.9098380256
 427993.9098380256
 427993.9098380256
 427993.9098380256
 427993.9098380256
 427993.9098380256
 427993.9098380256
 427993.9098380256
 427993.9098380256
 427993.9098380256
 427993.9098380256
 427993.9098380256
 427993.9098380256
 427993.9098380256
 427993.9098380256
 427993.9098380256
 427993.9098380256
 427993.9098380256
 427993.9098380256
 427993.9098380256
 427993.9098380256
 427993.9098380256
 427993.9098380256
 427993.9098380256
 427993.9098380256
 427993.9098380256
 427993.9098380256
 427993.9098380256
 427993.9098380256
 427993.9098380256
 427993.9098380256
 427993.9098380256
 427993.9098380256
 427993.9098380256
 427993.9098380256
 427993.9098380256
 427993.9098380256
 427993.9098380256
 427993.9098380256
 427993.9098380256
 427993.9098380256
 427993.9098380256
 427993.9098380256
 427993.9098380256
 427993.9098380256
 427993.9098380256
 427993.9098380256
 427993.9098380256
 427993.9098380256
 427993.9098380256
 427993.9098380256
 427993.9098380256
 427993.9098380256
 427993.9098380256
 427993.9098380256
 427993.9098380256
 427993.9098380256
 427993.9098380256
 427993.9098380256
 427993.9098380256
 427993.9098380256
 427993.9098380256
 427993.9098380256
 427993.9098380256
 427993.9098380256
 427993.9098380256
 427993.9098380256
 427993.9098380256
 427993.9098380256
 427993.9098380256
 427993.9098380256
 427993.9098380256
 427993.9098380256
 427993.9098380256
 427993.9098380256
 427993.9098380256
 427993.9098380256
 427993.9098380256
 427993.9098380256
 427993.9098380256
 427993.9098380256
 427993.9098380256
 427993.9098380256
 427993.9098380256
 427993.9098380256
 427993.9098380256
 427993.9098380256
 427993.9098380256
 427993.9098380256
 427993.9098380256
 427993.9098380256
 427993.9098380256
 427993.9098380256
 427993.9098380256
 427993.9098380256
 427993.9098380256
 427993.9098380256
 427993.9098380256
 427993.9098380256
 427993.9098380256
 427993.9098380256
 427993.9098380256
 427993.9098380256
 427993.9098380256
 427993.9098380256
 427993.9098380256
 427993.9098380256
 427993.9098380256
 427993.9098380256
 427993.9098380256
 427993.9098380256
 427993.9098380256
 427993.9098380256
 427993.9098380256
 427993.9098380256
 427993.9098380256
 427993.9098380256
 427993.9098380256
 427993.9098380256
 427993.9098380256
 427993.9098380256
 427993.9098380256
 427993.9098380256
 427993.9098380256
 427993.9098380256
 427993.9098380256
 427993.9098380256
 427993.9098380256
 427993.9098380256
 427993.9098380256
 427993.9098380256
 427993.9098380256
 427993.9098380256
 427993.9098380256
 427993.9098380256
 427993.9098380256
 427993.9098380256
 427993.9098380256
 427993.9098380256
 427993.9098380256
 427993.9098380256
 427993.9098380256
 427993.9098380256
 427993.9098380256
 427993.9098380256
 427993.9098380256
 427993.9098380256
 427993.9098380256
 427993.9098380256
 427993.9098380256
 427993.9098380256
 427993.9098380256
 427993.9098380256
 427993.9098380256
 427993.9098380256
 427993.9098380256
 427993.9098380256
 427993.9098380256
 427993.9098380256
 427993.9098380256
 427993.9098380256
 427993.9098380256
 427993.9098380256
 427993.9098380256
 427993.9098380256
 427993.9098380256
 427993.9098380256
 427993.9098380256
 427993.9098380256
 427993.9098380256
 427993.9098380256
 427993.9098380256
 427993.9098380256
 427993.9098380256
 427993.9098380256
 427993.9098380256
 427993.9098380256
 427993.9098380256
 427993.9098380256
 427993.9098380256
 427993.9098380256
 427993.9098380256
 427993.9098380256
 427993.9098380256
 427993.9098380256
 427993.9098380256
 427993.9098380256
 427993.9098380256
 427993.9098380256
 427993.9098380256
 427993.9098380256
 427993.9098380256
 427993.9098380256
 427993.9098380256
 427993.9098380256
 427993.9098380256
 427993.9098380256
 427993.9098380256
 427993.9098380256
 427993.9098380256
 427993.9098380256
 427993.9098380256
 427993.9098380256
 427993.9098380256
 427993.9098380256
 427993.9098380256
 427993.9098380256
 427993.9098380256
 427993.9098380256
 427993.9098380256
 427993.9098380256
 427993.9098380256
 427993.9098380256
 427993.9098380256
 427993.9098380256
 427993.9098380256
 427993.9098380256
 427993.9098380256
 427993.9098380256
 427993.9098380256
 427993.9098380256
 427993.9098380256
 427993.9098380256
 427993.9098380256
 427993.9098380256
 427993.9098380256
 427993.9098380256
 427993.9098380256
 427993.9098380256
 427993.9098380256
 427993.9098380256
 427993.9098380256
 427993.9098380256
 427993.9098380256
 427993.9098380256
 427993.9098380256
 427993.9098380256
 427993.9098380256
 427993.9098380256
 427993.9098380256
 427993.9098380256
 427993.9098380256
 427993.9098380256
 427993.9098380256
 427993.9098380256
 427993.9098380256
 427993.9098380256
 427993.9098380256
 427993.9098380256
 427993.9098380256
 427993.9098380256
 427993.9098380256
 427993.9098380256
 427993.9098380256
 427993.9098380256
 427993.9098380256
 427993.9098380256
 427993.9098380256
 427993.9098380256
 427993.9098380256
 427993.9098380256
 427993.9098380256
 427993.9098380256
 427993.9098380256
 427993.9098380256
 427993.9098380256
 427993.9098380256
 427993.9098380256
 427993.9098380256
 427993.9098380256
 427993.9098380256
 427993.9098380256
 427993.9098380256
 427993.9098380256
 427993.9098380256
 427993.9098380256
 427993.9098380256
 427993.9098380256
 427993.9098380256
 427993.9098380256
 427993.9098380256
 427993.9098380256
 427993.9098380256
 427993.9098380256
 427993.9098380256
 427993.9098380256
 427993.9098380256
 427993.9098380256
 427993.9098380256
 427993.9098380256
 427993.9098380256
 427993.9098380256
 427993.9098380256
 427993.9098380256
 427993.9098380256
 427993.9098380256
 427993.9098380256
 427993.9098380256
 427993.9098380256
 427993.9098380256
 427993.9098380256
 427993.9098380256
 427993.9098380256
 427993.9098380256
 427993.9098380256
 427993.9098380256
 427993.9098380256
 427993.9098380256
 427993.9098380256
 427993.9098380256
 427993.9098380256
 427993.9098380256
 427993.9098380256
 427993.9098380256
 427993.9098380256
 427993.9098380256
 427993.9098380256
 427993.9098380256
 427993.9098380256
 427993.9098380256
 427993.9098380256
 427993.9098380256
 427993.9098380256
 427993.9098380256
 427993.9098380256
 427993.9098380256
 427993.9098380256
 427993.9098380256
 427993.9098380256
 427993.9098380256
 427993.9098380256
 427993.9098380256
 427993.9098380256
 427993.9098380256
 427993.9098380256
 427993.9098380256
 427993.9098380256
 427993.9098380256
 427993.9098380256
 427993.9098380256
 427993.9098380256
 427993.9098380256
 427993.9098380256
 427993.9098380256
 427993.9098380256
 427993.9098380256
 427993.9098380256
 427993.9098380256
 427993.9098380256
 427993.9098380256
 427993.9098380256
 427993.9098380256
 427993.9098380256
 427993.9098380256
 427993.9098380256
 427993.9098380256
 427993.9098380256
 427993.9098380256
 427993.9098380256
 427993.9098380256
 427993.9098380256
 427993.9098380256
 427993.9098380256
 427993.9098380256
 427993.9098380256
 427993.9098380256
 427993.9098380256
 427993.9098380256
 427993.9098380256
 427993.9098380256
 427993.9098380256
 427993.9098380256
 427993.9098380256
 427993.9098380256
 427993.9098380256
 427993.9098380256
 427993.9098380256
 427993.9098380256
 427993.9098380256
 427993.9098380256
 427993.9098380256
 427993.9098380256
 427993.9098380256
 427993.9098380256
 427993.9098380256
 427993.9098380256
 427993.9098380256
 427993.9098380256
 427993.9098380256
 427993.9098380256
 427993.9098380256
 427993.9098380256
 427993.9098380256
 427993.9098380256
 427993.9098380256
 427993.9098380256
 427993.9098380256
 427993.9098380256
 427993.9098380256
 427993.9098380256
 427993.9098380256
 427993.9098380256
 427993.9098380256
 427993.9098380256
 427993.9098380256
 427993.9098380256
 427993.9098380256
 427993.9098380256
 427993.9098380256
 427993.9098380256
 427993.9098380256
 427993.9098380256
 427993.9098380256
 427993.9098380256
 427993.9098380256
 427993.9098380256
 427993.9098380256
 427993.9098380256
 427993.9098380256
 427993.9098380256
 427993.9098380256
 427993.9098380256
 427993.9098380256
 427993.9098380256
 427993.9098380256
 427993.9098380256
 427993.9098380256
 427993.9098380256
 427993.9098380256
 427993.9098380256
 427993.9098380256
 427993.9098380256
 427993.9098380256
 427993.9098380256
 427993.9098380256
 427993.9098380256
 427993.9098380256
 427993.9098380256
 427993.9098380256
 427993.9098380256
 427993.9098380256
 427993.9098380256
 427993.9098380256
 427993.9098380256
 427993.9098380256
 427993.9098380256
 427993.9098380256
 427993.9098380256
 427993.9098380256
 427993.9098380256
 427993.9098380256
 427993.9098380256
 427993.9098380256
 427993.9098380256
 427993.9098380256
 427993.9098380256
 427993.9098380256
 427993.9098380256
 427993.9098380256
 427993.9098380256
 427993.9098380256
 427993.9098380256
 427993.9098380256
 427993.9098380256
 427993.9098380256
 427993.9098380256
 427993.9098380256
 427993.9098380256
 427993.9098380256
 427993.9098380256
 427993.9098380256
 427993.9098380256
 427993.9098380256
 427993.9098380256
 427993.9098380256
 427993.9098380256
 427993.9098380256
 427993.9098380256
 427993.9098380256
 427993.9098380256
 427993.9098380256
 427993.9098380256
 427993.9098380256
 427993.9098380256
 427993.9098380256
 427993.9098380256
 427993.9098380256
 427993.9098380256
 427993.9098380256
 427993.9098380256
 427993.9098380256
 427993.9098380256
 427993.9098380256
 427993.9098380256
 427993.9098380256
 427993.9098380256
 427993.9098380256
 427993.9098380256
 427993.9098380256
 427993.9098380256
 427993.9098380256
 427993.9098380256
 427993.9098380256
 427993.9098380256
 427993.9098380256
 427993.9098380256
 427993.9098380256
 427993.9098380256
 427993.9098380256
 427993.9098380256
 427993.9098380256
 427993.9098380256
 427993.9098380256
 427993.9098380256
 427993.9098380256
 427993.9098380256
 427993.9098380256
 427993.9098380256
 427993.9098380256
 427993.9098380256
 427993.9098380256
 427993.9098380256
 427993.9098380256
 427993.9098380256
 427993.9098380256
 427993.9098380256
 427993.9098380256
 427993.9098380256
 427993.9098380256
 427993.9098380256
 427993.9098380256
 427993.9098380256
 427993.9098380256
 427993.9098380256
 427993.9098380256
 427993.9098380256
 427993.9098380256
 427993.9098380256
 427993.9098380256
 427993.9098380256
 427993.9098380256
 427993.9098380256
 427993.9098380256
 427993.9098380256
 427993.9098380256
 427993.9098380256
 427993.9098380256
 427993.9098380256
 427993.9098380256
 427993.9098380256
 427993.9098380256
 427993.9098380256
 427993.9098380256
 427993.9098380256
 427993.9098380256
 427993.9098380256
 427993.9098380256
 427993.9098380256
 427993.9098380256
 427993.9098380256
 427993.9098380256
 427993.9098380256
 427993.9098380256
 427993.9098380256
 427993.9098380256
 427993.9098380256
 427993.9098380256
 427993.9098380256
 427993.9098380256
 427993.9098380256
 427993.9098380256
 427993.9098380256
 427993.9098380256
 427993.9098380256
 427993.9098380256
 427993.9098380256
 427993.9098380256
 427993.9098380256
 427993.9098380256
 427993.9098380256
 427993.9098380256
 427993.9098380256
 427993.9098380256
 427993.9098380256
 427993.9098380256
 427993.9098380256
 427993.9098380256
 427993.9098380256
 427993.9098380256
 427993.9098380256
 427993.9098380256
 427993.9098380256
 427993.9098380256
 427993.9098380256
 427993.9098380256
 427993.9098380256
 427993.9098380256
 427993.9098380256
 427993.9098380256
 427993.9098380256
 427993.9098380256
 427993.9098380256
 427993.9098380256
 427993.9098380256
 427993.9098380256
 427993.9098380256
 427993.9098380256
 427993.9098380256
 427993.9098380256
 427993.9098380256
 427993.9098380256
 427993.9098380256
 427993.9098380256
 427993.9098380256
 427993.9098380256
 427993.9098380256
 427993.9098380256
 427993.9098380256
 427993.9098380256
 427993.9098380256
 427993.9098380256
 427993.9098380256
 427993.9098380256
 427993.9098380256
 427993.9098380256
 427993.9098380256
 427993.9098380256
 427993.9098380256
 427993.9098380256
 427993.9098380256
 427993.9098380256
 427993.9098380256
 427993.9098380256
 427993.9098380256
 427993.9098380256
 427993.9098380256
 427993.9098380256
 427993.9098380256
 427993.9098380256
 427993.9098380256
 427993.9098380256
 427993.9098380256
 427993.9098380256
 427993.9098380256
 427993.9098380256
 427993.9098380256
 427993.9098380256
 427993.9098380256
 427993.9098380256
 427993.9098380256
 427993.9098380256
 427993.9098380256
 427993.9098380256
 427993.9098380256
 427993.9098380256
 427993.9098380256
 427993.9098380256
 427993.9098380256
 427993.9098380256
 427993.9098380256
 427993.9098380256
 427993.9098380256
 427993.9098380256
 427993.9098380256
 427993.9098380256
 427993.9098380256
 427993.9098380256
 427993.9098380256
 427993.9098380256
 427993.9098380256
 427993.9098380256
 427993.9098380256
 427993.9098380256
 427993.9098380256
 427993.9098380256
 427993.9098380256
 427993.9098380256
 427993.9098380256
 427993.9098380256
 427993.9098380256
 427993.9098380256
 427993.9098380256
 427993.9098380256
 427993.9098380256
 427993.9098380256
 427993.9098380256
 427993.9098380256
 427993.9098380256
 427993.9098380256
 427993.9098380256
 427993.9098380256
 427993.9098380256
 427993.9098380256
 427993.9098380256
 427993.9098380256
 427993.9098380256
 427993.9098380256
 427993.9098380256
 427993.9098380256
 427993.9098380256
 427993.9098380256
 427993.9098380256
 427993.9098380256
 427993.9098380256
 427993.9098380256
 427993.9098380256
 427993.9098380256
 427993.9098380256
 427993.9098380256
 427993.9098380256
 427993.9098380256
 427993.9098380256
 427993.9098380256
 427993.9098380256
 427993.9098380256
 427993.9098380256
 427993.9098380256
 427993.9098380256
 427993.9098380256
 427993.9098380256
 427993.9098380256
 427993.9098380256
 427993.9098380256
 427993.9098380256
 427993.9098380256
 427993.9098380256
 427993.9098380256
 427993.9098380256
 427993.9098380256
 427993.9098380256
 427993.9098380256
 427993.9098380256
 427993.9098380256
 427993.9098380256
 427993.9098380256
 427993.9098380256
 427993.9098380256
 427993.9098380256
 427993.9098380256
 427993.9098380256
 427993.9098380256
 427993.9098380256
 427993.9098380256
 427993.9098380256
 427993.9098380256
 427993.9098380256
 427993.9098380256
 427993.9098380256
 427993.9098380256
 427993.9098380256
 427993.9098380256
 427993.9098380256
 427993.9098380256
 427993.9098380256
 427993.9098380256
 427993.9098380256
 427993.9098380256
 427993.9098380256
 427993.9098380256
 427993.9098380256
 427993.9098380256
 427993.9098380256
 427993.9098380256
 427993.9098380256
 427993.9098380256
 427993.9098380256
 427993.9098380256
 427993.9098380256
 427993.9098380256
 427993.9098380256
 427993.9098380256
 427993.9098380256
 427993.9098380256
 427993.9098380256
 427993.9098380256
 427993.9098380256
 427993.9098380256
 427993.9098380256
 427993.9098380256
 427993.9098380256
 427993.9098380256
 427993.9098380256
 427993.9098380256
 427993.9098380256
 427993.9098380256
 427993.9098380256
 427993.9098380256
 427993.9098380256
 427993.9098380256
 427993.9098380256
 427993.9098380256
 427993.9098380256
 427993.9098380256
 427993.9098380256
 427993.9098380256
 427993.9098380256
 427993.9098380256
 427993.9098380256
 427993.9098380256
 427993.9098380256
 427993.9098380256
 427993.9098380256
 427993.9098380256
 427993.9098380256
 427993.9098380256
 427993.9098380256
 427993.9098380256
 427993.9098380256
 427993.9098380256
 427993.9098380256
 427993.9098380256
 427993.9098380256
 427993.9098380256
 427993.9098380256
 427993.9098380256
 427993.9098380256
 427993.9098380256
 427993.9098380256
 427993.9098380256
 427993.9098380256
 427993.9098380256
 427993.9098380256
 427993.9098380256
 427993.9098380256
 427993.9098380256
 427993.9098380256
 427993.9098380256
 427993.9098380256
 427993.9098380256
 427993.9098380256
 427993.9098380256
 427993.9098380256
 427993.9098380256
 427993.9098380256
 427993.9098380256
 427993.9098380256
 427993.9098380256
 427993.9098380256
 427993.9098380256
 427993.9098380256
 427993.9098380256
 427993.9098380256
 427993.9098380256
 427993.9098380256
 427993.9098380256
 427993.9098380256
 427993.9098380256
 427993.9098380256
 427993.9098380256
 427993.9098380256
 427993.9098380256
 427993.9098380256
 427993.9098380256
 427993.9098380256
 427993.9098380256
 427993.9098380256
 427993.9098380256
 427993.9098380256
 427993.9098380256
 427993.9098380256
 427993.9098380256
 427993.9098380256
 427993.9098380256
 427993.9098380256
 427993.9098380256
 427993.9098380256
 427993.9098380256
 427993.9098380256
 427993.9098380256
 427993.9098380256
 427993.9098380256
 427993.9098380256
 427993.9098380256
 427993.9098380256
 427993.9098380256
 427993.9098380256
 427993.9098380256
 427993.9098380256
 427993.9098380256
 427993.9098380256
 427993.9098380256
 427993.9098380256
 427993.9098380256
 427993.9098380256
 427993.9098380256
 427993.9098380256
 427993.9098380256
 427993.9098380256
 427993.9098380256
 427993.9098380256
 427993.9098380256
 427993.9098380256
 427993.9098380256
 427993.9098380256
 427993.9098380256
 427993.9098380256
 427993.9098380256
 427993.9098380256
 427993.9098380256
 427993.9098380256
 427993.9098380256
 427993.9098380256
 427993.9098380256
 427993.9098380256
 427993.9098380256
 427993.9098380256
 427993.9098380256
 427993.9098380256
 427993.9098380256
 427993.9098380256
 427993.9098380256
 427993.9098380256
 427993.9098380256
 427993.9098380256
 427993.9098380256
 427993.9098380256
 427993.9098380256
 427993.9098380256
 427993.9098380256
 427993.9098380256
 427993.9098380256
 427993.9098380256
 427993.9098380256
 427993.9098380256
 427993.9098380256
 427993.9098380256
 427993.9098380256
 427993.9098380256
 427993.9098380256
 427993.9098380256
 427993.9098380256
 427993.9098380256
 427993.9098380256
 427993.9098380256
 427993.9098380256
 427993.9098380256
 427993.9098380256
 427993.9098380256
 427993.9098380256
 427993.9098380256
 427993.9098380256
 427993.9098380256
 427993.9098380256
 427993.9098380256
 427993.9098380256
 427993.9098380256
 427993.9098380256
 427993.9098380256
 427993.9098380256
 427993.9098380256
 427993.9098380256
 427993.9098380256
 427993.9098380256
 427993.9098380256
 427993.9098380256
 427993.9098380256
 427993.9098380256
 427993.9098380256
 427993.9098380256
 427993.9098380256
 427993.9098380256
 427993.9098380256
 427993.9098380256
 427993.9098380256
 427993.9098380256
 427993.9098380256
 427993.9098380256
 427993.9098380256
 427993.9098380256
 427993.9098380256
 427993.9098380256
 427993.9098380256
 427993.9098380256
 427993.9098380256
 427993.9098380256
 427993.9098380256
 427993.9098380256
 427993.9098380256
 427993.9098380256
 427993.9098380256
 427993.9098380256
 427993.9098380256
 427993.9098380256
 427993.9098380256
 427993.9098380256
 427993.9098380256
 427993.9098380256
 427993.9098380256
 427993.9098380256
 427993.9098380256
 427993.9098380256
 427993.9098380256
 427993.9098380256
 427993.9098380256
 427993.9098380256
 427993.9098380256
 427993.9098380256
 427993.9098380256
 427993.9098380256
 427993.9098380256
 427993.9098380256
 427993.9098380256
 427993.9098380256
 427993.9098380256
 427993.9098380256
 427993.9098380256
 427993.9098380256
 427993.9098380256
 427993.9098380256
 427993.9098380256
 427993.9098380256
 427993.9098380256
 427993.9098380256
 427993.9098380256
 427993.9098380256
 427993.9098380256
 427993.9098380256
 427993.9098380256
 427993.9098380256
 427993.9098380256
 427993.9098380256
 427993.9098380256
 427993.9098380256
 427993.9098380256
 427993.9098380256
 427993.9098380256
 427993.9098380256
 427993.9098380256
 427993.9098380256
 427993.9098380256
 427993.9098380256